 SCF Done:  E(RB3LYP) =  -76.4612338651     A.U. after    9 cycles
 SCF Done:  E(RB3LYP) =  -76.4635112935     A.U. after    9 cycles
 SCF Done:  E(RB3LYP) =  -76.4635693333     A.U. after    6 cycles
 Optimization completed.
    -- Stationary point found.

                         Standard orientation:
 ---------------------------------------------------------------------
 Center     Atomic      Atomic             Coordinates (Angstroms)
 Number     Number       Type             X           Y           Z
 ---------------------------------------------------------------------
      1          8           0       -0.000000    0.000000    0.116968
      2          1           0        0.000000    0.764641   -0.467871
      3          1           0       -0.000000   -0.764641   -0.467871
 ---------------------------------------------------------------------
 Mulliken charges:
     1  O   -0.631667
     2  H    0.315833
     3  H    0.315833
 Sum of Mulliken charges =  -0.00000
 Dipole moment (field-independent basis, Debye):
    X=             -0.0000    Y=             -0.0000    Z=             -2.0646  Tot=              2.0646
 Quadrupole moment (field-independent basis, Debye-Ang):
   XX=             -7.5854   YY=             -4.3494   ZZ=             -6.3339
   XY=              0.0000   XZ=              0.0000   YZ=              0.0000

 Normal termination of Gaussian 16 at Wed May 14 19:15:21 2025.
