 Gaussian 16, Revision C.01,
 Gaussian 16:  EM64L-G16RevC.01  3-Jul-2019

 ----------------------------------------------------------------------
 #P HF/6-31G(d) SCF(Conver=8,XQC,MaxConventionalCycles=64,MaxCycle=128)
  NoSymm Test Pop=chelpg IOp(6/33=2) GFinput GFprint
 ----------------------------------------------------------------------

 ----------------------------------------------
 MEP step - Input generated by PyRED MOLECULE-1
 ----------------------------------------------
 Symbolic Z-matrix:
 Charge =  0 Multiplicity = 1

                          Input orientation:
 ---------------------------------------------------------------------
 Center     Atomic      Atomic             Coordinates (Angstroms)
 Number     Number       Type             X           Y           Z
 ---------------------------------------------------------------------
      1          8           0        0.962659    0.000000    0.000000
      2          1           0        1.214710    0.929076    0.000000
      3          1           0        0.000000    0.000000    0.000000
 ---------------------------------------------------------------------

 SCF Done:  E(RHF) =  -76.0102609444     A.U. after   10 cycles

 Mulliken charges:
     1  O   -0.867162
     2  H    0.433581
     3  H    0.433581
 Sum of Mulliken charges =   0.00000
 Dipole moment (field-independent basis, Debye):
    X=             -1.3475    Y=              1.7617    Z=             -0.0000  Tot=              2.2180
 Quadrupole moment (field-independent basis, Debye-Ang):
   XX=             -7.1967   YY=             -4.9663   ZZ=             -7.2377
   XY=              2.3668   XZ=             -0.0000   YZ=              0.0000

 ESP charges:
     1  O   -0.806973
     2  H    0.403336
     3  H    0.403637
 Sum of ESP charges =  -0.00000

 Normal termination of Gaussian 16 at Thu May 15 14:36:14 2025.
