 Gaussian 16, Revision C.02,
 Gaussian 16:  ES64L-G16RevC.02  7-Dec-2021

 -----------------------------------------------
 #p b3lyp/def2TZVP EmpiricalDispersion=GD3BJ opt
 -----------------------------------------------

 ---
 dcn
 ---
 Symbolic Z-matrix:
 Charge =  0 Multiplicity = 1

 SCF Done:  E(RB3LYP) =  -76.4612338651     A.U. after    9 cycles
 SCF Done:  E(RB3LYP) =  -76.4635112935     A.U. after    9 cycles
 SCF Done:  E(RB3LYP) =  -76.4635693333     A.U. after    6 cycles
 Optimization completed.
    -- Stationary point found.

                         Standard orientation:
 ---------------------------------------------------------------------
 Center     Atomic      Atomic             Coordinates (Angstroms)
 Number     Number       Type             X           Y           Z
 ---------------------------------------------------------------------
      1          8           0       -0.000000    0.000000    0.116968
      2          1           0        0.000000    0.764641   -0.467871
      3          1           0       -0.000000   -0.764641   -0.467871
 ---------------------------------------------------------------------

 The electronic state is 1-A1.
 Alpha  occ. eigenvalues --  -19.12749  -1.01421  -0.53534  -0.39072  -0.31643
 Alpha virt. eigenvalues --    0.01371   0.08912   0.35653   0.40442   0.42455
 Alpha virt. eigenvalues --    0.43421   0.56801   0.59455   1.16516   1.18510
 Alpha virt. eigenvalues --    1.29433   1.51959   1.62794   1.74428   1.97393

 Mulliken charges:
               1
     1  O   -0.631667
     2  H    0.315833
     3  H    0.315833
 Sum of Mulliken charges =  -0.00000

 Dipole moment (field-independent basis, Debye):
    X=             -0.0000    Y=             -0.0000    Z=             -2.0646  Tot=              2.0646
 Quadrupole moment (field-independent basis, Debye-Ang):
   XX=             -7.5854   YY=             -4.3494   ZZ=             -6.3339
   XY=              0.0000   XZ=              0.0000   YZ=              0.0000

 Normal termination of Gaussian 16 at Wed May 14 19:15:21 2025.
